<?xml version="1.0" encoding="UTF-8"?>

<!-- generated on 2025-10-09 21:24:30 by Eclipse SUMO sumo Version 1.24.0
<sumoConfiguration xmlns:xsi="http://www.w3.org/2001/XMLSchema-instance" xsi:noNamespaceSchemaLocation="http://sumo.dlr.de/xsd/sumoConfiguration.xsd">

    <input>
        <net-file value="map.net.xml"/>
        <route-files value="demand.rou.xml"/>
        <additional-files value="detector.add.xml"/>
    </input>

    <output>
        <queue-output value="queue_out.xml"/>
        <summary-output value="summary_out.xml"/>
        <tripinfo-output value="tripinfo_out.xml"/>
        <statistic-output value="statistic_out.xml"/>
    </output>

    <processing>
        <lateral-resolution value="0.2"/>
        <time-to-teleport value="-1"/>
        <max-depart-delay value="300"/>
    </processing>

</sumoConfiguration>
-->

<tripinfos xmlns:xsi="http://www.w3.org/2001/XMLSchema-instance" xsi:noNamespaceSchemaLocation="http://sumo.dlr.de/xsd/tripinfo_file.xsd">
    <tripinfo id="f_2.0" depart="0.00" departLane="aurora-lower_in_0" departPos="1.60" departPosLat="0.00" departSpeed="0.00" departDelay="0.00" arrival="42.00" arrivalLane="aurora-lower_out_0" arrivalPos="233.24" arrivalPosLat="0.00" arrivalSpeed="13.56" duration="42.00" routeLength="542.89" waitingTime="0.00" waitingCount="0" stopTime="0.00" timeLoss="2.15" rerouteNo="0" devices="tripinfo_f_2.0" vType="phMotor" speedFactor="1.00" vaporized=""/>
    <tripinfo id="f_3.0" depart="1.00" departLane="aurora-lower_in_0" departPos="4.52" departPosLat="0.00" departSpeed="0.00" departDelay="1.00" arrival="46.00" arrivalLane="aurora-lower_out_0" arrivalPos="233.24" arrivalPosLat="0.00" arrivalSpeed="13.37" duration="45.00" routeLength="539.97" waitingTime="0.00" waitingCount="0" stopTime="0.00" timeLoss="7.12" rerouteNo="0" devices="tripinfo_f_3.0" vType="phCar" speedFactor="1.03" vaporized=""/>
    <tripinfo id="f_3.1" depart="5.00" departLane="aurora-lower_in_0" departPos="4.52" departPosLat="0.00" departSpeed="0.00" departDelay="0.41" arrival="47.00" arrivalLane="aurora-lower_out_1" arrivalPos="233.24" arrivalPosLat="0.00" arrivalSpeed="15.69" duration="42.00" routeLength="539.97" waitingTime="0.00" waitingCount="0" stopTime="0.00" timeLoss="8.59" rerouteNo="0" devices="tripinfo_f_3.1" vType="phCar" speedFactor="1.18" vaporized=""/>
    <tripinfo id="f_2.1" depart="4.00" departLane="aurora-lower_in_0" departPos="1.60" departPosLat="0.00" departSpeed="0.00" departDelay="0.94" arrival="48.00" arrivalLane="aurora-lower_out_0" arrivalPos="233.24" arrivalPosLat="0.00" arrivalSpeed="13.32" duration="44.00" routeLength="542.89" waitingTime="0.00" waitingCount="0" stopTime="0.00" timeLoss="4.83" rerouteNo="0" devices="tripinfo_f_2.1" vType="phMotor" speedFactor="1.00" vaporized=""/>
    <tripinfo id="f_2.2" depart="7.00" departLane="aurora-lower_in_0" departPos="1.60" departPosLat="0.00" departSpeed="0.00" departDelay="0.89" arrival="50.00" arrivalLane="aurora-lower_out_0" arrivalPos="233.24" arrivalPosLat="0.00" arrivalSpeed="13.01" duration="43.00" routeLength="542.89" waitingTime="0.00" waitingCount="0" stopTime="0.00" timeLoss="3.11" rerouteNo="0" devices="tripinfo_f_2.2" vType="phMotor" speedFactor="1.00" vaporized=""/>
    <tripinfo id="f_7.0" depart="11.00" departLane="aurora-upper_in_0" departPos="4.52" departPosLat="0.00" departSpeed="0.00" departDelay="11.00" arrival="51.00" arrivalLane="aurora-upper_out_1" arrivalPos="195.15" arrivalPosLat="0.00" arrivalSpeed="16.23" duration="40.00" routeLength="539.09" waitingTime="0.00" waitingCount="0" stopTime="0.00" timeLoss="6.50" rerouteNo="0" devices="tripinfo_f_7.0" vType="phCar" speedFactor="1.18" vaporized=""/>
    <tripinfo id="f_6.0" depart="9.00" departLane="aurora-upper_in_0" departPos="1.60" departPosLat="0.00" departSpeed="0.00" departDelay="9.00" arrival="52.00" arrivalLane="aurora-upper_out_0" arrivalPos="195.15" arrivalPosLat="0.00" arrivalSpeed="13.53" duration="43.00" routeLength="542.01" waitingTime="0.00" waitingCount="0" stopTime="0.00" timeLoss="3.24" rerouteNo="0" devices="tripinfo_f_6.0" vType="phMotor" speedFactor="1.00" vaporized=""/>
    <tripinfo id="f_2.3" depart="10.00" departLane="aurora-lower_in_0" departPos="1.60" departPosLat="0.00" departSpeed="0.00" departDelay="0.83" arrival="52.00" arrivalLane="aurora-lower_out_0" arrivalPos="233.24" arrivalPosLat="0.00" arrivalSpeed="13.31" duration="42.00" routeLength="542.89" waitingTime="0.00" waitingCount="0" stopTime="0.00" timeLoss="2.33" rerouteNo="0" devices="tripinfo_f_2.3" vType="phMotor" speedFactor="1.00" vaporized=""/>
    <tripinfo id="f_3.2" depart="11.00" departLane="aurora-lower_in_0" departPos="4.52" departPosLat="0.00" departSpeed="0.00" departDelay="1.83" arrival="56.00" arrivalLane="aurora-lower_out_0" arrivalPos="233.24" arrivalPosLat="0.00" arrivalSpeed="13.71" duration="45.00" routeLength="539.97" waitingTime="0.00" waitingCount="0" stopTime="0.00" timeLoss="7.68" rerouteNo="0" devices="tripinfo_f_3.2" vType="phCar" speedFactor="1.04" vaporized=""/>
    <tripinfo id="f_2.4" depart="13.00" departLane="aurora-lower_in_0" departPos="1.60" departPosLat="0.00" departSpeed="0.00" departDelay="0.78" arrival="59.00" arrivalLane="aurora-lower_out_0" arrivalPos="233.24" arrivalPosLat="0.00" arrivalSpeed="13.01" duration="46.00" routeLength="542.89" waitingTime="0.00" waitingCount="0" stopTime="0.00" timeLoss="6.04" rerouteNo="0" devices="tripinfo_f_2.4" vType="phMotor" speedFactor="1.00" vaporized=""/>
    <tripinfo id="f_2.5" depart="17.00" departLane="aurora-lower_in_0" departPos="1.60" departPosLat="0.00" departSpeed="0.00" departDelay="1.72" arrival="60.00" arrivalLane="aurora-lower_out_0" arrivalPos="233.24" arrivalPosLat="0.00" arrivalSpeed="13.34" duration="43.00" routeLength="542.89" waitingTime="0.00" waitingCount="0" stopTime="0.00" timeLoss="3.23" rerouteNo="0" devices="tripinfo_f_2.5" vType="phMotor" speedFactor="1.00" vaporized=""/>
    <tripinfo id="f_6.1" depart="18.00" departLane="aurora-upper_in_0" departPos="1.60" departPosLat="0.00" departSpeed="0.00" departDelay="16.10" arrival="61.00" arrivalLane="aurora-upper_out_0" arrivalPos="195.15" arrivalPosLat="0.00" arrivalSpeed="13.27" duration="43.00" routeLength="542.01" waitingTime="0.00" waitingCount="0" stopTime="0.00" timeLoss="3.46" rerouteNo="0" devices="tripinfo_f_6.1" vType="phMotor" speedFactor="1.00" vaporized=""/>
    <tripinfo id="f_3.3" depart="15.00" departLane="aurora-lower_in_0" departPos="4.52" departPosLat="0.00" departSpeed="0.00" departDelay="1.24" arrival="61.00" arrivalLane="aurora-lower_out_0" arrivalPos="233.24" arrivalPosLat="0.00" arrivalSpeed="13.60" duration="46.00" routeLength="539.97" waitingTime="0.00" waitingCount="0" stopTime="0.00" timeLoss="6.90" rerouteNo="0" devices="tripinfo_f_3.3" vType="phCar" speedFactor="1.00" vaporized=""/>
    <tripinfo id="f_2.6" depart="19.00" departLane="aurora-lower_in_0" departPos="1.60" departPosLat="0.00" departSpeed="0.00" departDelay="0.66" arrival="61.00" arrivalLane="aurora-lower_out_1" arrivalPos="233.24" arrivalPosLat="0.00" arrivalSpeed="13.44" duration="42.00" routeLength="542.89" waitingTime="0.00" waitingCount="0" stopTime="0.00" timeLoss="2.30" rerouteNo="0" devices="tripinfo_f_2.6" vType="phMotor" speedFactor="1.00" vaporized=""/>
    <tripinfo id="f_3.4" depart="20.00" departLane="aurora-lower_in_0" departPos="4.52" departPosLat="0.00" departSpeed="0.00" departDelay="1.66" arrival="66.00" arrivalLane="aurora-lower_out_0" arrivalPos="233.24" arrivalPosLat="0.00" arrivalSpeed="12.75" duration="46.00" routeLength="539.97" waitingTime="0.00" waitingCount="0" stopTime="0.00" timeLoss="6.03" rerouteNo="0" devices="tripinfo_f_3.4" vType="phCar" speedFactor="0.99" vaporized=""/>
    <tripinfo id="f_2.7" depart="22.00" departLane="aurora-lower_in_0" departPos="1.60" departPosLat="0.00" departSpeed="0.00" departDelay="0.61" arrival="67.00" arrivalLane="aurora-lower_out_0" arrivalPos="233.24" arrivalPosLat="0.00" arrivalSpeed="13.23" duration="45.00" routeLength="542.89" waitingTime="0.00" waitingCount="0" stopTime="0.00" timeLoss="5.66" rerouteNo="0" devices="tripinfo_f_2.7" vType="phMotor" speedFactor="1.00" vaporized=""/>
    <tripinfo id="f_7.1" depart="22.00" departLane="aurora-upper_in_0" departPos="4.52" departPosLat="0.00" departSpeed="0.00" departDelay="19.15" arrival="68.00" arrivalLane="aurora-upper_out_0" arrivalPos="195.15" arrivalPosLat="0.00" arrivalSpeed="13.12" duration="46.00" routeLength="539.09" waitingTime="0.00" waitingCount="0" stopTime="0.00" timeLoss="6.09" rerouteNo="0" devices="tripinfo_f_7.1" vType="phCar" speedFactor="0.99" vaporized=""/>
    <tripinfo id="f_6.2" depart="26.00" departLane="aurora-upper_in_0" departPos="1.60" departPosLat="0.00" departSpeed="0.00" departDelay="22.20" arrival="69.00" arrivalLane="aurora-upper_out_0" arrivalPos="195.15" arrivalPosLat="0.00" arrivalSpeed="13.45" duration="43.00" routeLength="542.01" waitingTime="0.00" waitingCount="0" stopTime="0.00" timeLoss="3.47" rerouteNo="0" devices="tripinfo_f_6.2" vType="phMotor" speedFactor="1.00" vaporized=""/>
    <tripinfo id="f_2.8" depart="26.00" departLane="aurora-lower_in_0" departPos="1.60" departPosLat="0.00" departSpeed="0.00" departDelay="1.55" arrival="71.00" arrivalLane="aurora-lower_out_1" arrivalPos="233.24" arrivalPosLat="0.00" arrivalSpeed="13.58" duration="45.00" routeLength="542.89" waitingTime="0.00" waitingCount="0" stopTime="0.00" timeLoss="5.40" rerouteNo="0" devices="tripinfo_f_2.8" vType="phMotor" speedFactor="1.00" vaporized=""/>
    <tripinfo id="f_2.9" depart="28.00" departLane="aurora-lower_in_0" departPos="1.60" departPosLat="0.00" departSpeed="0.00" departDelay="0.50" arrival="71.00" arrivalLane="aurora-lower_out_0" arrivalPos="233.24" arrivalPosLat="-1.35" arrivalSpeed="13.14" duration="43.00" routeLength="542.89" waitingTime="0.00" waitingCount="0" stopTime="0.00" timeLoss="3.35" rerouteNo="0" devices="tripinfo_f_2.9" vType="phMotor" speedFactor="1.00" vaporized=""/>
    <tripinfo id="f_3.5" depart="25.00" departLane="aurora-lower_in_0" departPos="4.52" departPosLat="0.00" departSpeed="0.00" departDelay="2.07" arrival="72.00" arrivalLane="aurora-lower_out_0" arrivalPos="233.24" arrivalPosLat="0.00" arrivalSpeed="12.75" duration="47.00" routeLength="539.97" waitingTime="0.00" waitingCount="0" stopTime="0.00" timeLoss="4.94" rerouteNo="0" devices="tripinfo_f_3.5" vType="phCar" speedFactor="0.94" vaporized=""/>
    <tripinfo id="f_2.10" depart="31.00" departLane="aurora-lower_in_0" departPos="1.60" departPosLat="0.00" departSpeed="0.00" departDelay="0.44" arrival="73.00" arrivalLane="aurora-lower_out_0" arrivalPos="233.24" arrivalPosLat="0.00" arrivalSpeed="13.48" duration="42.00" routeLength="542.89" waitingTime="0.00" waitingCount="0" stopTime="0.00" timeLoss="2.62" rerouteNo="0" devices="tripinfo_f_2.10" vType="phMotor" speedFactor="1.00" vaporized=""/>
    <tripinfo id="f_6.3" depart="31.00" departLane="aurora-upper_in_0" departPos="1.60" departPosLat="0.00" departSpeed="0.00" departDelay="25.29" arrival="74.00" arrivalLane="aurora-upper_out_0" arrivalPos="195.15" arrivalPosLat="0.00" arrivalSpeed="13.73" duration="43.00" routeLength="542.01" waitingTime="0.00" waitingCount="0" stopTime="0.00" timeLoss="3.30" rerouteNo="0" devices="tripinfo_f_6.3" vType="phMotor" speedFactor="1.00" vaporized=""/>
    <tripinfo id="f_3.6" depart="30.00" departLane="aurora-lower_in_0" departPos="4.52" departPosLat="0.00" departSpeed="0.00" departDelay="2.49" arrival="75.00" arrivalLane="aurora-lower_out_0" arrivalPos="233.24" arrivalPosLat="0.55" arrivalSpeed="12.87" duration="45.00" routeLength="539.97" waitingTime="0.00" waitingCount="0" stopTime="0.00" timeLoss="5.27" rerouteNo="0" devices="tripinfo_f_3.6" vType="phCar" speedFactor="1.00" vaporized=""/>
    <tripinfo id="f_2.11" depart="34.00" departLane="aurora-lower_in_0" departPos="1.60" departPosLat="0.00" departSpeed="0.00" departDelay="0.38" arrival="79.00" arrivalLane="aurora-lower_out_0" arrivalPos="233.24" arrivalPosLat="0.00" arrivalSpeed="13.47" duration="45.00" routeLength="542.89" waitingTime="0.00" waitingCount="0" stopTime="0.00" timeLoss="5.58" rerouteNo="0" devices="tripinfo_f_2.11" vType="phMotor" speedFactor="1.00" vaporized=""/>
    <tripinfo id="f_2.12" depart="37.00" departLane="aurora-lower_in_0" departPos="1.60" departPosLat="0.00" departSpeed="0.00" departDelay="0.33" arrival="81.00" arrivalLane="aurora-lower_out_1" arrivalPos="233.24" arrivalPosLat="0.00" arrivalSpeed="13.00" duration="44.00" routeLength="542.89" waitingTime="0.00" waitingCount="0" stopTime="0.00" timeLoss="4.72" rerouteNo="0" devices="tripinfo_f_2.12" vType="phMotor" speedFactor="1.00" vaporized=""/>
    <tripinfo id="f_7.2" depart="33.00" departLane="aurora-upper_in_0" departPos="4.52" departPosLat="0.00" departSpeed="0.00" departDelay="27.29" arrival="82.00" arrivalLane="aurora-upper_out_0" arrivalPos="195.15" arrivalPosLat="1.55" arrivalSpeed="12.03" duration="49.00" routeLength="539.09" waitingTime="0.00" waitingCount="0" stopTime="0.00" timeLoss="5.54" rerouteNo="0" devices="tripinfo_f_7.2" vType="phCar" speedFactor="0.90" vaporized=""/>
    <tripinfo id="f_6.4" depart="39.00" departLane="aurora-upper_in_0" departPos="1.60" departPosLat="0.00" departSpeed="0.00" departDelay="31.39" arrival="82.00" arrivalLane="aurora-upper_out_0" arrivalPos="195.15" arrivalPosLat="0.00" arrivalSpeed="13.06" duration="43.00" routeLength="542.01" waitingTime="0.00" waitingCount="0" stopTime="0.00" timeLoss="3.40" rerouteNo="0" devices="tripinfo_f_6.4" vType="phMotor" speedFactor="1.00" vaporized=""/>
    <tripinfo id="f_3.7" depart="33.00" departLane="aurora-lower_in_0" departPos="4.52" departPosLat="0.00" departSpeed="0.00" departDelay="0.90" arrival="83.00" arrivalLane="aurora-lower_out_0" arrivalPos="233.24" arrivalPosLat="0.00" arrivalSpeed="12.00" duration="50.00" routeLength="539.97" waitingTime="0.00" waitingCount="0" stopTime="0.00" timeLoss="5.66" rerouteNo="0" devices="tripinfo_f_3.7" vType="phCar" speedFactor="0.89" vaporized=""/>
    <tripinfo id="f_0.0" depart="0.00" departLane="R7_0" departPos="1.60" departPosLat="0.00" departSpeed="0.00" departDelay="0.00" arrival="90.00" arrivalLane="aurora-upper_out_2" arrivalPos="195.15" arrivalPosLat="-0.05" arrivalSpeed="13.58" duration="90.00" routeLength="469.88" waitingTime="51.00" waitingCount="1" stopTime="0.00" timeLoss="55.59" rerouteNo="0" devices="tripinfo_f_0.0" vType="phMotor" speedFactor="1.00" vaporized=""/>
    <tripinfo id="f_0.1" depart="11.00" departLane="R7_0" departPos="1.60" departPosLat="0.00" departSpeed="0.00" departDelay="0.44" arrival="90.00" arrivalLane="aurora-upper_out_2" arrivalPos="195.15" arrivalPosLat="-1.35" arrivalSpeed="13.77" duration="79.00" routeLength="469.88" waitingTime="40.00" waitingCount="1" stopTime="0.00" timeLoss="44.44" rerouteNo="0" devices="tripinfo_f_0.1" vType="phMotor" speedFactor="1.00" vaporized=""/>
    <tripinfo id="f_0.2" depart="22.00" departLane="R7_0" departPos="1.60" departPosLat="0.00" departSpeed="0.00" departDelay="0.89" arrival="90.00" arrivalLane="aurora-upper_out_2" arrivalPos="195.15" arrivalPosLat="1.05" arrivalSpeed="13.69" duration="68.00" routeLength="469.88" waitingTime="29.00" waitingCount="1" stopTime="0.00" timeLoss="33.54" rerouteNo="0" devices="tripinfo_f_0.2" vType="phMotor" speedFactor="1.00" vaporized=""/>
    <tripinfo id="f_1.0" depart="1.00" departLane="R7_0" departPos="4.52" departPosLat="0.00" departSpeed="0.00" departDelay="1.00" arrival="91.00" arrivalLane="aurora-upper_out_3" arrivalPos="195.15" arrivalPosLat="0.00" arrivalSpeed="13.74" duration="90.00" routeLength="461.90" waitingTime="47.00" waitingCount="1" stopTime="0.00" timeLoss="57.73" rerouteNo="0" devices="tripinfo_f_1.0" vType="phCar" speedFactor="1.06" vaporized=""/>
    <tripinfo id="f_0.3" depart="33.00" departLane="R7_0" departPos="1.60" departPosLat="0.00" departSpeed="0.00" departDelay="1.33" arrival="91.00" arrivalLane="aurora-upper_out_2" arrivalPos="195.15" arrivalPosLat="1.25" arrivalSpeed="13.14" duration="58.00" routeLength="469.88" waitingTime="13.00" waitingCount="2" stopTime="0.00" timeLoss="24.00" rerouteNo="0" devices="tripinfo_f_0.3" vType="phMotor" speedFactor="1.00" vaporized=""/>
    <tripinfo id="f_0.4" depart="43.00" departLane="R7_0" departPos="1.60" departPosLat="0.00" departSpeed="0.00" departDelay="0.77" arrival="91.00" arrivalLane="aurora-upper_out_2" arrivalPos="195.15" arrivalPosLat="0.00" arrivalSpeed="13.51" duration="48.00" routeLength="469.88" waitingTime="10.00" waitingCount="1" stopTime="0.00" timeLoss="13.84" rerouteNo="0" devices="tripinfo_f_0.4" vType="phMotor" speedFactor="1.00" vaporized=""/>
    <tripinfo id="f_1.1" depart="16.00" departLane="R7_0" departPos="4.52" departPosLat="0.00" departSpeed="0.00" departDelay="0.21" arrival="93.00" arrivalLane="aurora-upper_out_3" arrivalPos="195.15" arrivalPosLat="0.00" arrivalSpeed="12.76" duration="77.00" routeLength="461.90" waitingTime="33.00" waitingCount="1" stopTime="0.00" timeLoss="41.83" rerouteNo="0" devices="tripinfo_f_1.1" vType="phCar" speedFactor="0.97" vaporized=""/>
    <tripinfo id="f_1.2" depart="32.00" departLane="R7_0" departPos="4.52" departPosLat="0.00" departSpeed="0.00" departDelay="0.42" arrival="93.00" arrivalLane="aurora-upper_out_2" arrivalPos="195.15" arrivalPosLat="-0.15" arrivalSpeed="13.38" duration="61.00" routeLength="466.96" waitingTime="17.00" waitingCount="1" stopTime="0.00" timeLoss="27.62" rerouteNo="0" devices="tripinfo_f_1.2" vType="phCar" speedFactor="1.02" vaporized=""/>
    <tripinfo id="f_0.5" depart="53.00" departLane="R7_0" departPos="1.60" departPosLat="0.00" departSpeed="0.00" departDelay="0.21" arrival="93.00" arrivalLane="aurora-upper_out_2" arrivalPos="195.15" arrivalPosLat="1.25" arrivalSpeed="13.89" duration="40.00" routeLength="469.88" waitingTime="0.00" waitingCount="0" stopTime="0.00" timeLoss="5.89" rerouteNo="0" devices="tripinfo_f_0.5" vType="phMotor" speedFactor="1.00" vaporized=""/>
    <tripinfo id="f_1.3" depart="48.00" departLane="R7_0" departPos="4.52" departPosLat="0.00" departSpeed="0.00" departDelay="0.63" arrival="94.00" arrivalLane="aurora-upper_out_3" arrivalPos="195.15" arrivalPosLat="0.00" arrivalSpeed="13.60" duration="46.00" routeLength="461.90" waitingTime="4.00" waitingCount="1" stopTime="0.00" timeLoss="13.03" rerouteNo="0" devices="tripinfo_f_1.3" vType="phCar" speedFactor="1.02" vaporized=""/>
    <tripinfo id="f_10.0" depart="0.00" departLane="aurora-upper_in_0" departPos="1.60" departPosLat="0.00" departSpeed="0.00" departDelay="0.00" arrival="101.00" arrivalLane="univ_road-lower_out_0" arrivalPos="110.01" arrivalPosLat="0.00" arrivalSpeed="13.19" duration="101.00" routeLength="1302.26" waitingTime="0.00" waitingCount="0" stopTime="0.00" timeLoss="5.53" rerouteNo="0" devices="tripinfo_f_10.0" vType="phMotor" speedFactor="1.00" vaporized=""/>
    <tripinfo id="f_1.4" depart="64.00" departLane="R7_0" departPos="4.52" departPosLat="0.00" departSpeed="0.00" departDelay="0.84" arrival="101.00" arrivalLane="aurora-upper_out_2" arrivalPos="195.15" arrivalPosLat="0.00" arrivalSpeed="15.23" duration="37.00" routeLength="466.96" waitingTime="0.00" waitingCount="0" stopTime="0.00" timeLoss="6.45" rerouteNo="0" devices="tripinfo_f_1.4" vType="phCar" speedFactor="1.12" vaporized=""/>
    <tripinfo id="f_45.0" depart="19.00" departLane="L1_0" departPos="4.52" departPosLat="0.00" departSpeed="0.00" departDelay="19.00" arrival="103.00" arrivalLane="L3_0" arrivalPos="551.98" arrivalPosLat="0.00" arrivalSpeed="15.74" duration="84.00" routeLength="1200.48" waitingTime="0.00" waitingCount="0" stopTime="0.00" timeLoss="8.46" rerouteNo="0" devices="tripinfo_f_45.0" vType="phCar" speedFactor="1.16" vaporized=""/>
    <tripinfo id="f_0.6" depart="65.00" departLane="R7_0" departPos="1.60" departPosLat="0.00" departSpeed="0.00" departDelay="1.66" arrival="104.00" arrivalLane="aurora-upper_out_2" arrivalPos="195.15" arrivalPosLat="0.00" arrivalSpeed="13.71" duration="39.00" routeLength="469.88" waitingTime="1.00" waitingCount="1" stopTime="0.00" timeLoss="4.96" rerouteNo="0" devices="tripinfo_f_0.6" vType="phMotor" speedFactor="1.00" vaporized=""/>
    <tripinfo id="f_12.0" depart="3.00" departLane="aurora-upper_in_0" departPos="1.60" departPosLat="0.00" departSpeed="0.00" departDelay="3.00" arrival="108.00" arrivalLane="univ_road-upper_out_0" arrivalPos="109.58" arrivalPosLat="0.00" arrivalSpeed="13.37" duration="105.00" routeLength="1306.68" waitingTime="0.00" waitingCount="0" stopTime="0.00" timeLoss="9.38" rerouteNo="0" devices="tripinfo_f_12.0" vType="phMotor" speedFactor="1.00" vaporized=""/>
    <tripinfo id="f_44.0" depart="17.00" departLane="L1_0" departPos="1.60" departPosLat="0.00" departSpeed="0.00" departDelay="17.00" arrival="109.00" arrivalLane="L3_0" arrivalPos="551.98" arrivalPosLat="0.00" arrivalSpeed="13.19" duration="92.00" routeLength="1203.40" waitingTime="0.00" waitingCount="0" stopTime="0.00" timeLoss="4.47" rerouteNo="0" devices="tripinfo_f_44.0" vType="phMotor" speedFactor="1.00" vaporized=""/>
    <tripinfo id="f_13.0" depart="5.00" departLane="aurora-upper_in_0" departPos="4.52" departPosLat="0.00" departSpeed="0.00" departDelay="5.00" arrival="110.00" arrivalLane="univ_road-upper_out_0" arrivalPos="109.58" arrivalPosLat="0.00" arrivalSpeed="13.13" duration="105.00" routeLength="1303.76" waitingTime="0.00" waitingCount="0" stopTime="0.00" timeLoss="10.83" rerouteNo="0" devices="tripinfo_f_13.0" vType="phCar" speedFactor="1.01" vaporized=""/>
    <tripinfo id="f_0.7" depart="74.00" departLane="R7_0" departPos="1.60" departPosLat="0.00" departSpeed="0.00" departDelay="0.10" arrival="110.00" arrivalLane="aurora-upper_out_2" arrivalPos="195.15" arrivalPosLat="0.00" arrivalSpeed="13.74" duration="36.00" routeLength="469.88" waitingTime="0.00" waitingCount="0" stopTime="0.00" timeLoss="1.84" rerouteNo="0" devices="tripinfo_f_0.7" vType="phMotor" speedFactor="1.00" vaporized=""/>
    <tripinfo id="f_9.0" depart="15.00" departLane="aurora-upper_in_0" departPos="4.52" departPosLat="0.00" departSpeed="0.00" departDelay="15.00" arrival="112.00" arrivalLane="R4_2" arrivalPos="160.56" arrivalPosLat="0.00" arrivalSpeed="15.48" duration="97.00" routeLength="1361.90" waitingTime="0.00" waitingCount="0" stopTime="0.00" timeLoss="10.28" rerouteNo="0" devices="tripinfo_f_9.0" vType="phCar" speedFactor="1.15" vaporized=""/>
    <tripinfo id="f_11.0" depart="1.00" departLane="aurora-upper_in_0" departPos="4.52" departPosLat="0.00" departSpeed="0.00" departDelay="1.00" arrival="114.00" arrivalLane="univ_road-lower_out_0" arrivalPos="110.01" arrivalPosLat="0.00" arrivalSpeed="12.20" duration="113.00" routeLength="1299.34" waitingTime="0.00" waitingCount="0" stopTime="0.00" timeLoss="10.98" rerouteNo="0" devices="tripinfo_f_11.0" vType="phCar" speedFactor="0.94" vaporized=""/>
    <tripinfo id="f_9.1" depart="20.00" departLane="aurora-upper_in_0" departPos="4.52" departPosLat="0.00" departSpeed="0.00" departDelay="17.75" arrival="114.00" arrivalLane="R4_1" arrivalPos="160.56" arrivalPosLat="0.00" arrivalSpeed="15.26" duration="94.00" routeLength="1361.90" waitingTime="0.00" waitingCount="0" stopTime="0.00" timeLoss="9.61" rerouteNo="0" devices="tripinfo_f_9.1" vType="phCar" speedFactor="1.17" vaporized=""/>
    <tripinfo id="f_44.1" depart="24.00" departLane="L1_0" departPos="1.60" departPosLat="0.00" departSpeed="0.00" departDelay="22.77" arrival="118.00" arrivalLane="L3_0" arrivalPos="551.98" arrivalPosLat="0.00" arrivalSpeed="13.57" duration="94.00" routeLength="1203.40" waitingTime="0.00" waitingCount="0" stopTime="0.00" timeLoss="6.73" rerouteNo="0" devices="tripinfo_f_44.1" vType="phMotor" speedFactor="1.00" vaporized=""/>
    <tripinfo id="f_8.0" depart="13.00" departLane="aurora-upper_in_0" departPos="1.60" departPosLat="0.00" departSpeed="0.00" departDelay="13.00" arrival="119.00" arrivalLane="R4_0" arrivalPos="160.56" arrivalPosLat="0.00" arrivalSpeed="13.78" duration="106.00" routeLength="1364.82" waitingTime="0.00" waitingCount="0" stopTime="0.00" timeLoss="6.82" rerouteNo="0" devices="tripinfo_f_8.0" vType="phMotor" speedFactor="1.00" vaporized=""/>
    <tripinfo id="f_1.5" depart="79.00" departLane="R7_0" departPos="4.52" departPosLat="0.00" departSpeed="0.00" departDelay="0.05" arrival="119.00" arrivalLane="aurora-upper_out_2" arrivalPos="195.15" arrivalPosLat="0.00" arrivalSpeed="12.99" duration="40.00" routeLength="466.96" waitingTime="0.00" waitingCount="0" stopTime="0.00" timeLoss="4.45" rerouteNo="0" devices="tripinfo_f_1.5" vType="phCar" speedFactor="0.97" vaporized=""/>
    <tripinfo id="f_0.8" depart="85.00" departLane="R7_0" departPos="1.60" departPosLat="0.00" departSpeed="0.00" departDelay="0.54" arrival="121.00" arrivalLane="aurora-upper_out_2" arrivalPos="195.15" arrivalPosLat="0.00" arrivalSpeed="13.60" duration="36.00" routeLength="469.88" waitingTime="0.00" waitingCount="0" stopTime="0.00" timeLoss="1.99" rerouteNo="0" devices="tripinfo_f_0.8" vType="phMotor" speedFactor="1.00" vaporized=""/>
    <tripinfo id="f_45.1" depart="27.00" departLane="L1_0" departPos="4.52" departPosLat="0.00" departSpeed="0.00" departDelay="25.15" arrival="122.00" arrivalLane="L3_1" arrivalPos="551.98" arrivalPosLat="0.00" arrivalSpeed="13.59" duration="95.00" routeLength="1200.48" waitingTime="0.00" waitingCount="0" stopTime="0.00" timeLoss="8.23" rerouteNo="0" devices="tripinfo_f_45.1" vType="phCar" speedFactor="1.01" vaporized=""/>
    <tripinfo id="f_44.2" depart="28.00" departLane="L1_0" departPos="1.60" departPosLat="0.00" departSpeed="0.00" departDelay="25.54" arrival="122.00" arrivalLane="L3_1" arrivalPos="551.98" arrivalPosLat="-1.45" arrivalSpeed="13.02" duration="94.00" routeLength="1203.40" waitingTime="0.00" waitingCount="0" stopTime="0.00" timeLoss="6.78" rerouteNo="0" devices="tripinfo_f_44.2" vType="phMotor" speedFactor="1.00" vaporized=""/>
    <tripinfo id="f_44.3" depart="30.00" departLane="L1_0" departPos="1.60" departPosLat="0.00" departSpeed="0.00" departDelay="26.31" arrival="122.00" arrivalLane="L3_0" arrivalPos="551.98" arrivalPosLat="0.55" arrivalSpeed="13.65" duration="92.00" routeLength="1203.40" waitingTime="0.00" waitingCount="0" stopTime="0.00" timeLoss="4.81" rerouteNo="0" devices="tripinfo_f_44.3" vType="phMotor" speedFactor="1.00" vaporized=""/>
    <tripinfo id="f_8.1" depart="17.00" departLane="aurora-upper_in_0" departPos="1.60" departPosLat="0.00" departSpeed="0.00" departDelay="15.50" arrival="124.00" arrivalLane="R4_0" arrivalPos="160.56" arrivalPosLat="0.00" arrivalSpeed="13.13" duration="107.00" routeLength="1364.82" waitingTime="0.00" waitingCount="0" stopTime="0.00" timeLoss="8.20" rerouteNo="0" devices="tripinfo_f_8.1" vType="phMotor" speedFactor="1.00" vaporized=""/>
    <tripinfo id="f_45.2" depart="32.00" departLane="L1_0" departPos="4.52" departPosLat="0.00" departSpeed="0.00" departDelay="28.31" arrival="124.00" arrivalLane="L3_0" arrivalPos="551.98" arrivalPosLat="1.15" arrivalSpeed="13.20" duration="92.00" routeLength="1200.48" waitingTime="0.00" waitingCount="0" stopTime="0.00" timeLoss="7.25" rerouteNo="0" devices="tripinfo_f_45.2" vType="phCar" speedFactor="1.02" vaporized=""/>
    <tripinfo id="f_44.4" depart="33.00" departLane="L1_0" departPos="1.60" departPosLat="0.00" departSpeed="0.00" departDelay="28.08" arrival="125.00" arrivalLane="L3_0" arrivalPos="551.98" arrivalPosLat="0.00" arrivalSpeed="13.09" duration="92.00" routeLength="1203.40" waitingTime="0.00" waitingCount="0" stopTime="0.00" timeLoss="4.82" rerouteNo="0" devices="tripinfo_f_44.4" vType="phMotor" speedFactor="1.00" vaporized=""/>
    <tripinfo id="f_44.5" depart="36.00" departLane="L1_0" departPos="1.60" departPosLat="0.00" departSpeed="0.00" departDelay="29.85" arrival="129.00" arrivalLane="L3_0" arrivalPos="551.98" arrivalPosLat="0.00" arrivalSpeed="13.62" duration="93.00" routeLength="1203.40" waitingTime="0.00" waitingCount="0" stopTime="0.00" timeLoss="5.59" rerouteNo="0" devices="tripinfo_f_44.5" vType="phMotor" speedFactor="1.00" vaporized=""/>
    <tripinfo id="f_1.6" depart="95.00" departLane="R7_0" departPos="4.52" departPosLat="0.00" departSpeed="0.00" departDelay="0.27" arrival="129.00" arrivalLane="aurora-upper_out_2" arrivalPos="195.15" arrivalPosLat="0.00" arrivalSpeed="16.68" duration="34.00" routeLength="466.96" waitingTime="0.00" waitingCount="0" stopTime="0.00" timeLoss="6.64" rerouteNo="0" devices="tripinfo_f_1.6" vType="phCar" speedFactor="1.24" vaporized=""/>
    <tripinfo id="f_44.6" depart="38.00" departLane="L1_0" departPos="1.60" departPosLat="0.00" departSpeed="0.00" departDelay="30.63" arrival="131.00" arrivalLane="L3_0" arrivalPos="551.98" arrivalPosLat="0.00" arrivalSpeed="13.16" duration="93.00" routeLength="1203.40" waitingTime="0.00" waitingCount="0" stopTime="0.00" timeLoss="5.44" rerouteNo="0" devices="tripinfo_f_44.6" vType="phMotor" speedFactor="1.00" vaporized=""/>
    <tripinfo id="f_8.2" depart="24.00" departLane="aurora-upper_in_0" departPos="1.60" departPosLat="0.00" departSpeed="0.00" departDelay="21.01" arrival="132.00" arrivalLane="R4_0" arrivalPos="160.56" arrivalPosLat="0.00" arrivalSpeed="13.10" duration="108.00" routeLength="1364.82" waitingTime="0.00" waitingCount="0" stopTime="0.00" timeLoss="8.82" rerouteNo="0" devices="tripinfo_f_8.2" vType="phMotor" speedFactor="1.00" vaporized=""/>
    <tripinfo id="f_45.3" depart="34.00" departLane="L1_0" departPos="4.52" departPosLat="0.00" departSpeed="0.00" departDelay="28.46" arrival="132.00" arrivalLane="L3_0" arrivalPos="551.98" arrivalPosLat="0.00" arrivalSpeed="15.24" duration="98.00" routeLength="1200.48" waitingTime="6.00" waitingCount="2" stopTime="0.00" timeLoss="19.51" rerouteNo="0" devices="tripinfo_f_45.3" vType="phCar" speedFactor="1.10" vaporized=""/>