<?xml version="1.0" encoding="UTF-8"?>

<!-- generated on 2025-04-30 17:31:02 by Eclipse SUMO GUI Version 1.20.0
<configuration xmlns:xsi="http://www.w3.org/2001/XMLSchema-instance" xsi:noNamespaceSchemaLocation="http://sumo.dlr.de/xsd/sumoConfiguration.xsd">

    <input>
        <net-file value="C:\Documents\2S2425\199\Hier_Imp\map.net_new.xml"/>
        <route-files value="C:\Documents\2S2425\199\Hier_Imp\demand.rou.alt.xml"/>
    </input>

    <output>
        <summary-output value="C:\Documents\2S2425\199\Hier_Imp\summary_out.xml"/>
        <tripinfo-output value="C:\Documents\2S2425\199\Hier_Imp\tripinfo_out.xml"/>
        <statistic-output value="C:\Documents\2S2425\199\Hier_Imp\statistic_out.xml"/>
    </output>

    <time>
        <step-length value="0.5"/>
    </time>

    <processing>
        <lateral-resolution value="0.2"/>
        <ignore-junction-blocker value="300"/>
        <collision.action value="none"/>
    </processing>

</configuration>
-->

<tripinfos xmlns:xsi="http://www.w3.org/2001/XMLSchema-instance" xsi:noNamespaceSchemaLocation="http://sumo.dlr.de/xsd/tripinfo_file.xsd">
    <tripinfo id="f_2.0" depart="0.00" departLane="aurora-lower_in_0" departPos="0.00" departPosLat="0.00" departSpeed="13.89" departDelay="0.00" arrival="40.50" arrivalLane="aurora-lower_out_0" arrivalPos="233.24" arrivalPosLat="0.00" arrivalSpeed="13.80" duration="40.50" routeLength="544.49" waitingTime="0.00" waitingCount="0" stopTime="0.00" timeLoss="0.88" rerouteNo="0" devices="tripinfo_f_2.0" vType="phMotor" speedFactor="1.00" vaporized=""/>
    <tripinfo id="f_6.0" depart="0.00" departLane="aurora-upper_in_1" departPos="0.00" departPosLat="0.00" departSpeed="13.89" departDelay="0.00" arrival="41.00" arrivalLane="aurora-upper_out_1" arrivalPos="195.15" arrivalPosLat="0.00" arrivalSpeed="13.74" duration="41.00" routeLength="543.60" waitingTime="0.00" waitingCount="0" stopTime="0.00" timeLoss="1.39" rerouteNo="0" devices="tripinfo_f_6.0" vType="phMotor" speedFactor="1.00" vaporized=""/>
    <tripinfo id="f_7.1" depart="3.00" departLane="aurora-upper_in_2" departPos="0.00" departPosLat="0.00" departSpeed="13.87" departDelay="0.32" arrival="41.00" arrivalLane="aurora-upper_out_2" arrivalPos="195.15" arrivalPosLat="0.00" arrivalSpeed="14.71" duration="38.00" routeLength="543.60" waitingTime="0.00" waitingCount="0" stopTime="0.00" timeLoss="2.15" rerouteNo="0" devices="tripinfo_f_7.1" vType="phCar" speedFactor="1.09" vaporized=""/>
    <tripinfo id="f_7.0" depart="0.00" departLane="aurora-upper_in_1" departPos="14.86" departPosLat="0.00" departSpeed="12.49" departDelay="0.00" arrival="43.50" arrivalLane="aurora-upper_out_0" arrivalPos="195.15" arrivalPosLat="0.00" arrivalSpeed="12.29" duration="43.50" routeLength="528.74" waitingTime="0.00" waitingCount="0" stopTime="0.00" timeLoss="0.85" rerouteNo="0" devices="tripinfo_f_7.0" vType="phCar" speedFactor="0.90" vaporized=""/>
    <tripinfo id="f_2.1" depart="3.00" departLane="aurora-lower_in_2" departPos="0.00" departPosLat="0.00" departSpeed="13.89" departDelay="0.13" arrival="43.50" arrivalLane="aurora-lower_out_0" arrivalPos="233.24" arrivalPosLat="0.00" arrivalSpeed="13.86" duration="40.50" routeLength="544.49" waitingTime="0.00" waitingCount="0" stopTime="0.00" timeLoss="0.89" rerouteNo="0" devices="tripinfo_f_2.1" vType="phMotor" speedFactor="1.00" vaporized=""/>
    <tripinfo id="f_6.2" depart="4.00" departLane="aurora-upper_in_3" departPos="0.00" departPosLat="0.00" departSpeed="13.89" departDelay="0.43" arrival="44.00" arrivalLane="aurora-upper_out_2" arrivalPos="195.15" arrivalPosLat="1.35" arrivalSpeed="13.61" duration="40.00" routeLength="543.71" waitingTime="0.00" waitingCount="0" stopTime="0.00" timeLoss="0.80" rerouteNo="0" devices="tripinfo_f_6.2" vType="phMotor" speedFactor="1.00" vaporized=""/>
    <tripinfo id="f_6.1" depart="2.00" departLane="aurora-upper_in_2" departPos="0.00" departPosLat="0.00" departSpeed="13.86" departDelay="0.21" arrival="44.50" arrivalLane="aurora-upper_out_2" arrivalPos="195.15" arrivalPosLat="-0.75" arrivalSpeed="13.85" duration="42.50" routeLength="543.60" waitingTime="1.00" waitingCount="1" stopTime="0.00" timeLoss="3.29" rerouteNo="0" devices="tripinfo_f_6.1" vType="phMotor" speedFactor="1.00" vaporized=""/>
    <tripinfo id="f_3.0" depart="0.00" departLane="aurora-lower_in_1" departPos="0.00" departPosLat="0.00" departSpeed="12.36" departDelay="0.00" arrival="45.50" arrivalLane="aurora-lower_out_0" arrivalPos="233.24" arrivalPosLat="0.00" arrivalSpeed="12.30" duration="45.50" routeLength="544.49" waitingTime="0.00" waitingCount="0" stopTime="0.00" timeLoss="0.96" rerouteNo="0" devices="tripinfo_f_3.0" vType="phCar" speedFactor="0.89" vaporized=""/>
    <tripinfo id="f_6.3" depart="5.50" departLane="aurora-upper_in_1" departPos="0.00" departPosLat="0.00" departSpeed="12.28" departDelay="0.14" arrival="45.50" arrivalLane="aurora-upper_out_0" arrivalPos="195.15" arrivalPosLat="0.00" arrivalSpeed="13.84" duration="40.00" routeLength="543.60" waitingTime="0.00" waitingCount="0" stopTime="0.00" timeLoss="0.78" rerouteNo="0" devices="tripinfo_f_6.3" vType="phMotor" speedFactor="1.00" vaporized=""/>
    <tripinfo id="f_2.2" depart="6.00" departLane="aurora-lower_in_0" departPos="0.00" departPosLat="0.00" departSpeed="13.57" departDelay="0.26" arrival="46.50" arrivalLane="aurora-lower_out_0" arrivalPos="233.24" arrivalPosLat="0.00" arrivalSpeed="13.53" duration="40.50" routeLength="544.49" waitingTime="0.00" waitingCount="0" stopTime="0.00" timeLoss="0.88" rerouteNo="0" devices="tripinfo_f_2.2" vType="phMotor" speedFactor="1.00" vaporized=""/>
    <tripinfo id="f_6.4" depart="7.50" departLane="aurora-upper_in_1" departPos="0.00" departPosLat="0.00" departSpeed="12.38" departDelay="0.36" arrival="47.50" arrivalLane="aurora-upper_out_0" arrivalPos="195.15" arrivalPosLat="0.00" arrivalSpeed="13.58" duration="40.00" routeLength="543.60" waitingTime="0.00" waitingCount="0" stopTime="0.00" timeLoss="0.73" rerouteNo="0" devices="tripinfo_f_6.4" vType="phMotor" speedFactor="1.00" vaporized=""/>
    <tripinfo id="f_3.1" depart="4.50" departLane="aurora-lower_in_3" departPos="0.00" departPosLat="0.00" departSpeed="12.89" departDelay="0.20" arrival="48.50" arrivalLane="aurora-lower_out_1" arrivalPos="233.24" arrivalPosLat="0.00" arrivalSpeed="12.52" duration="44.00" routeLength="544.49" waitingTime="0.00" waitingCount="0" stopTime="0.00" timeLoss="1.35" rerouteNo="0" devices="tripinfo_f_3.1" vType="phCar" speedFactor="0.93" vaporized=""/>
    <tripinfo id="f_7.2" depart="5.50" departLane="aurora-upper_in_3" departPos="0.00" departPosLat="0.00" departSpeed="12.92" departDelay="0.14" arrival="48.50" arrivalLane="aurora-upper_out_1" arrivalPos="195.15" arrivalPosLat="0.00" arrivalSpeed="12.63" duration="43.00" routeLength="543.60" waitingTime="0.00" waitingCount="0" stopTime="0.00" timeLoss="0.76" rerouteNo="0" devices="tripinfo_f_7.2" vType="phCar" speedFactor="0.93" vaporized=""/>
    <tripinfo id="f_2.3" depart="9.00" departLane="aurora-lower_in_2" departPos="11.86" departPosLat="0.00" departSpeed="13.61" departDelay="0.40" arrival="48.50" arrivalLane="aurora-lower_out_0" arrivalPos="233.24" arrivalPosLat="0.00" arrivalSpeed="13.82" duration="39.50" routeLength="532.63" waitingTime="0.00" waitingCount="0" stopTime="0.00" timeLoss="0.72" rerouteNo="0" devices="tripinfo_f_2.3" vType="phMotor" speedFactor="1.00" vaporized=""/>
    <tripinfo id="f_3.2" depart="9.00" departLane="aurora-lower_in_2" departPos="0.00" departPosLat="0.00" departSpeed="13.61" departDelay="0.40" arrival="50.50" arrivalLane="aurora-lower_out_0" arrivalPos="233.24" arrivalPosLat="0.20" arrivalSpeed="13.51" duration="41.50" routeLength="544.49" waitingTime="0.00" waitingCount="0" stopTime="0.00" timeLoss="1.38" rerouteNo="0" devices="tripinfo_f_3.2" vType="phCar" speedFactor="0.98" vaporized=""/>
    <tripinfo id="f_6.5" depart="9.00" departLane="aurora-upper_in_2" departPos="0.00" departPosLat="0.00" departSpeed="13.57" departDelay="0.07" arrival="51.50" arrivalLane="aurora-upper_out_0" arrivalPos="195.15" arrivalPosLat="0.70" arrivalSpeed="13.65" duration="42.50" routeLength="543.60" waitingTime="1.00" waitingCount="1" stopTime="0.00" timeLoss="3.20" rerouteNo="0" devices="tripinfo_f_6.5" vType="phMotor" speedFactor="1.00" vaporized=""/>
    <tripinfo id="f_3.3" depart="13.00" departLane="aurora-lower_in_1" departPos="0.00" departPosLat="0.00" departSpeed="13.75" departDelay="0.10" arrival="51.50" arrivalLane="aurora-lower_out_0" arrivalPos="233.24" arrivalPosLat="1.55" arrivalSpeed="14.42" duration="38.50" routeLength="544.49" waitingTime="0.00" waitingCount="0" stopTime="0.00" timeLoss="1.35" rerouteNo="0" devices="tripinfo_f_3.3" vType="phCar" speedFactor="1.06" vaporized=""/>
    <tripinfo id="f_2.4" depart="11.50" departLane="aurora-lower_in_1" departPos="0.00" departPosLat="0.00" departSpeed="12.18" departDelay="0.03" arrival="52.00" arrivalLane="aurora-lower_out_0" arrivalPos="233.24" arrivalPosLat="0.00" arrivalSpeed="13.87" duration="40.50" routeLength="544.49" waitingTime="0.00" waitingCount="0" stopTime="0.00" timeLoss="0.89" rerouteNo="0" devices="tripinfo_f_2.4" vType="phMotor" speedFactor="1.00" vaporized=""/>
    <tripinfo id="f_7.3" depart="8.50" departLane="aurora-upper_in_1" departPos="0.00" departPosLat="0.00" departSpeed="12.37" departDelay="0.47" arrival="52.50" arrivalLane="aurora-upper_out_0" arrivalPos="195.15" arrivalPosLat="0.00" arrivalSpeed="12.63" duration="44.00" routeLength="543.60" waitingTime="0.00" waitingCount="0" stopTime="0.00" timeLoss="0.90" rerouteNo="0" devices="tripinfo_f_7.3" vType="phCar" speedFactor="0.92" vaporized=""/>
    <tripinfo id="f_6.7" depart="12.50" departLane="aurora-upper_in_1" departPos="0.00" departPosLat="0.00" departSpeed="12.17" departDelay="0.00" arrival="52.50" arrivalLane="aurora-upper_out_1" arrivalPos="195.15" arrivalPosLat="0.00" arrivalSpeed="13.72" duration="40.00" routeLength="543.60" waitingTime="0.00" waitingCount="0" stopTime="0.00" timeLoss="0.78" rerouteNo="0" devices="tripinfo_f_6.7" vType="phMotor" speedFactor="1.00" vaporized=""/>
    <tripinfo id="f_6.8" depart="14.50" departLane="aurora-upper_in_1" departPos="0.00" departPosLat="0.00" departSpeed="12.50" departDelay="0.22" arrival="54.50" arrivalLane="aurora-upper_out_1" arrivalPos="195.15" arrivalPosLat="0.00" arrivalSpeed="13.73" duration="40.00" routeLength="543.60" waitingTime="0.00" waitingCount="0" stopTime="0.00" timeLoss="0.75" rerouteNo="0" devices="tripinfo_f_6.8" vType="phMotor" speedFactor="1.00" vaporized=""/>
    <tripinfo id="f_2.5" depart="14.50" departLane="aurora-lower_in_3" departPos="0.00" departPosLat="0.00" departSpeed="12.56" departDelay="0.16" arrival="55.00" arrivalLane="aurora-lower_out_0" arrivalPos="233.24" arrivalPosLat="0.00" arrivalSpeed="13.80" duration="40.50" routeLength="544.49" waitingTime="0.00" waitingCount="0" stopTime="0.00" timeLoss="0.88" rerouteNo="0" devices="tripinfo_f_2.5" vType="phMotor" speedFactor="1.00" vaporized=""/>
    <tripinfo id="f_7.6" depart="16.50" departLane="aurora-upper_in_1" departPos="14.67" departPosLat="0.00" departSpeed="13.70" departDelay="0.43" arrival="55.50" arrivalLane="aurora-upper_out_1" arrivalPos="195.15" arrivalPosLat="0.00" arrivalSpeed="14.31" duration="39.00" routeLength="528.93" waitingTime="0.00" waitingCount="0" stopTime="0.00" timeLoss="2.02" rerouteNo="0" devices="tripinfo_f_7.6" vType="phCar" speedFactor="1.04" vaporized=""/>
    <tripinfo id="f_6.9" depart="16.50" departLane="aurora-upper_in_1" departPos="0.00" departPosLat="0.00" departSpeed="13.70" departDelay="0.43" arrival="56.50" arrivalLane="aurora-upper_out_1" arrivalPos="195.15" arrivalPosLat="0.00" arrivalSpeed="13.69" duration="40.00" routeLength="543.60" waitingTime="0.00" waitingCount="0" stopTime="0.00" timeLoss="0.81" rerouteNo="0" devices="tripinfo_f_6.9" vType="phMotor" speedFactor="1.00" vaporized=""/>
    <tripinfo id="f_2.6" depart="17.50" departLane="aurora-lower_in_3" departPos="11.52" departPosLat="0.00" departSpeed="13.27" departDelay="0.29" arrival="57.00" arrivalLane="aurora-lower_out_0" arrivalPos="233.24" arrivalPosLat="0.00" arrivalSpeed="13.78" duration="39.50" routeLength="532.97" waitingTime="0.00" waitingCount="0" stopTime="0.00" timeLoss="0.70" rerouteNo="0" devices="tripinfo_f_2.6" vType="phMotor" speedFactor="1.00" vaporized=""/>
    <tripinfo id="f_7.5" depart="13.50" departLane="aurora-upper_in_2" departPos="0.00" departPosLat="0.00" departSpeed="14.01" departDelay="0.11" arrival="57.50" arrivalLane="aurora-upper_out_1" arrivalPos="195.15" arrivalPosLat="0.00" arrivalSpeed="15.56" duration="44.00" routeLength="543.60" waitingTime="4.50" waitingCount="2" stopTime="0.00" timeLoss="12.26" rerouteNo="0" devices="tripinfo_f_7.5" vType="phCar" speedFactor="1.25" vaporized=""/>
    <tripinfo id="f_3.4" depart="17.50" departLane="aurora-lower_in_3" departPos="0.00" departPosLat="0.00" departSpeed="13.27" departDelay="0.30" arrival="59.50" arrivalLane="aurora-lower_out_1" arrivalPos="233.24" arrivalPosLat="0.00" arrivalSpeed="13.09" duration="42.00" routeLength="544.49" waitingTime="0.00" waitingCount="0" stopTime="0.00" timeLoss="0.78" rerouteNo="0" devices="tripinfo_f_3.4" vType="phCar" speedFactor="0.96" vaporized=""/>
    <tripinfo id="f_3.5" depart="22.00" departLane="aurora-lower_in_0" departPos="0.00" departPosLat="0.00" departSpeed="13.52" departDelay="0.49" arrival="59.50" arrivalLane="aurora-lower_out_0" arrivalPos="233.24" arrivalPosLat="0.00" arrivalSpeed="15.28" duration="37.50" routeLength="544.49" waitingTime="0.00" waitingCount="0" stopTime="0.00" timeLoss="2.27" rerouteNo="0" devices="tripinfo_f_3.5" vType="phCar" speedFactor="1.11" vaporized=""/>
    <tripinfo id="f_2.7" depart="20.50" departLane="aurora-lower_in_0" departPos="0.00" departPosLat="0.00" departSpeed="13.56" departDelay="0.42" arrival="61.00" arrivalLane="aurora-lower_out_0" arrivalPos="233.24" arrivalPosLat="0.00" arrivalSpeed="13.66" duration="40.50" routeLength="544.49" waitingTime="0.00" waitingCount="0" stopTime="0.00" timeLoss="0.91" rerouteNo="0" devices="tripinfo_f_2.7" vType="phMotor" speedFactor="1.00" vaporized=""/>
    <tripinfo id="f_2.8" depart="23.00" departLane="aurora-lower_in_1" departPos="0.00" departPosLat="0.00" departSpeed="13.81" departDelay="0.06" arrival="63.50" arrivalLane="aurora-lower_out_0" arrivalPos="233.24" arrivalPosLat="0.00" arrivalSpeed="13.63" duration="40.50" routeLength="544.49" waitingTime="0.00" waitingCount="0" stopTime="0.00" timeLoss="0.90" rerouteNo="0" devices="tripinfo_f_2.8" vType="phMotor" speedFactor="1.00" vaporized=""/>
    <tripinfo id="f_6.13" depart="23.50" departLane="aurora-upper_in_1" departPos="0.00" departPosLat="0.00" departSpeed="12.10" departDelay="0.29" arrival="64.50" arrivalLane="aurora-upper_out_1" arrivalPos="195.15" arrivalPosLat="0.00" arrivalSpeed="13.67" duration="41.00" routeLength="543.60" waitingTime="0.00" waitingCount="0" stopTime="0.00" timeLoss="1.86" rerouteNo="0" devices="tripinfo_f_6.13" vType="phMotor" speedFactor="1.00" vaporized=""/>
    <tripinfo id="f_7.7" depart="19.00" departLane="aurora-upper_in_1" departPos="0.00" departPosLat="0.00" departSpeed="12.44" departDelay="0.25" arrival="65.50" arrivalLane="aurora-upper_out_0" arrivalPos="195.15" arrivalPosLat="0.00" arrivalSpeed="11.94" duration="46.50" routeLength="543.60" waitingTime="0.00" waitingCount="0" stopTime="0.00" timeLoss="2.42" rerouteNo="0" devices="tripinfo_f_7.7" vType="phCar" speedFactor="0.90" vaporized=""/>
    <tripinfo id="f_2.9" depart="26.00" departLane="aurora-lower_in_2" departPos="11.15" departPosLat="0.00" departSpeed="12.90" departDelay="0.19" arrival="65.50" arrivalLane="aurora-lower_out_0" arrivalPos="233.24" arrivalPosLat="0.00" arrivalSpeed="13.77" duration="39.50" routeLength="533.34" waitingTime="0.00" waitingCount="0" stopTime="0.00" timeLoss="0.70" rerouteNo="0" devices="tripinfo_f_2.9" vType="phMotor" speedFactor="1.00" vaporized=""/>
    <tripinfo id="f_6.15" depart="27.00" departLane="aurora-upper_in_1" departPos="0.00" departPosLat="0.00" departSpeed="12.54" departDelay="0.22" arrival="68.00" arrivalLane="aurora-upper_out_0" arrivalPos="195.15" arrivalPosLat="0.00" arrivalSpeed="13.62" duration="41.00" routeLength="543.60" waitingTime="0.00" waitingCount="0" stopTime="0.00" timeLoss="1.45" rerouteNo="0" devices="tripinfo_f_6.15" vType="phMotor" speedFactor="1.00" vaporized=""/>
    <tripinfo id="f_3.6" depart="26.00" departLane="aurora-lower_in_2" departPos="0.00" departPosLat="0.00" departSpeed="12.90" departDelay="0.19" arrival="69.00" arrivalLane="aurora-lower_out_0" arrivalPos="233.24" arrivalPosLat="1.45" arrivalSpeed="12.66" duration="43.00" routeLength="544.49" waitingTime="0.00" waitingCount="0" stopTime="0.00" timeLoss="0.76" rerouteNo="0" devices="tripinfo_f_3.6" vType="phCar" speedFactor="0.93" vaporized=""/>
    <tripinfo id="f_7.9" depart="24.50" departLane="aurora-upper_in_1" departPos="0.00" departPosLat="0.00" departSpeed="11.36" departDelay="0.40" arrival="69.50" arrivalLane="aurora-upper_out_1" arrivalPos="195.15" arrivalPosLat="0.00" arrivalSpeed="12.38" duration="45.00" routeLength="543.60" waitingTime="0.00" waitingCount="0" stopTime="0.00" timeLoss="1.36" rerouteNo="0" devices="tripinfo_f_7.9" vType="phCar" speedFactor="0.90" vaporized=""/>
    <tripinfo id="f_2.10" depart="29.00" departLane="aurora-lower_in_1" departPos="0.00" departPosLat="0.00" departSpeed="13.55" departDelay="0.32" arrival="69.50" arrivalLane="aurora-lower_out_0" arrivalPos="233.24" arrivalPosLat="0.00" arrivalSpeed="13.65" duration="40.50" routeLength="544.49" waitingTime="0.00" waitingCount="0" stopTime="0.00" timeLoss="0.91" rerouteNo="0" devices="tripinfo_f_2.10" vType="phMotor" speedFactor="1.00" vaporized=""/>
    <tripinfo id="f_7.10" depart="27.00" departLane="aurora-upper_in_1" departPos="13.51" departPosLat="0.00" departSpeed="12.54" departDelay="0.22" arrival="70.00" arrivalLane="aurora-upper_out_0" arrivalPos="195.15" arrivalPosLat="0.00" arrivalSpeed="12.89" duration="43.00" routeLength="530.09" waitingTime="0.00" waitingCount="0" stopTime="0.00" timeLoss="1.96" rerouteNo="0" devices="tripinfo_f_7.10" vType="phCar" speedFactor="0.94" vaporized=""/>
    <tripinfo id="f_3.7" depart="30.50" departLane="aurora-lower_in_1" departPos="0.00" departPosLat="0.00" departSpeed="13.84" departDelay="0.39" arrival="70.00" arrivalLane="aurora-lower_out_0" arrivalPos="233.24" arrivalPosLat="0.00" arrivalSpeed="14.01" duration="39.50" routeLength="544.49" waitingTime="0.00" waitingCount="0" stopTime="0.00" timeLoss="0.73" rerouteNo="0" devices="tripinfo_f_3.7" vType="phCar" speedFactor="1.01" vaporized=""/>
    <tripinfo id="f_6.14" depart="25.00" departLane="aurora-upper_in_2" departPos="0.00" departPosLat="0.00" departSpeed="0.40" departDelay="0.01" arrival="71.00" arrivalLane="aurora-upper_out_1" arrivalPos="195.15" arrivalPosLat="0.00" arrivalSpeed="13.51" duration="46.00" routeLength="543.60" waitingTime="3.00" waitingCount="1" stopTime="0.00" timeLoss="6.79" rerouteNo="0" devices="tripinfo_f_6.14" vType="phMotor" speedFactor="1.00" vaporized=""/>
    <tripinfo id="f_2.11" depart="32.00" departLane="aurora-lower_in_3" departPos="0.00" departPosLat="0.00" departSpeed="13.59" departDelay="0.45" arrival="72.50" arrivalLane="aurora-lower_out_0" arrivalPos="233.24" arrivalPosLat="0.00" arrivalSpeed="13.61" duration="40.50" routeLength="544.49" waitingTime="0.00" waitingCount="0" stopTime="0.00" timeLoss="0.85" rerouteNo="0" devices="tripinfo_f_2.11" vType="phMotor" speedFactor="1.00" vaporized=""/>
    <tripinfo id="f_3.8" depart="34.50" departLane="aurora-lower_in_3" departPos="0.00" departPosLat="0.00" departSpeed="13.82" departDelay="0.09" arrival="73.00" arrivalLane="aurora-lower_out_2" arrivalPos="233.24" arrivalPosLat="0.00" arrivalSpeed="14.62" duration="38.50" routeLength="544.49" waitingTime="0.00" waitingCount="0" stopTime="0.00" timeLoss="1.71" rerouteNo="0" devices="tripinfo_f_3.8" vType="phCar" speedFactor="1.07" vaporized=""/>
    <tripinfo id="f_2.12" depart="34.50" departLane="aurora-lower_in_3" departPos="12.07" departPosLat="0.00" departSpeed="13.82" departDelay="0.08" arrival="74.00" arrivalLane="aurora-lower_out_0" arrivalPos="233.24" arrivalPosLat="0.00" arrivalSpeed="13.61" duration="39.50" routeLength="532.42" waitingTime="0.00" waitingCount="0" stopTime="0.00" timeLoss="0.71" rerouteNo="0" devices="tripinfo_f_2.12" vType="phMotor" speedFactor="1.00" vaporized=""/>
    <tripinfo id="f_6.19" depart="34.00" departLane="aurora-upper_in_1" departPos="0.00" departPosLat="0.00" departSpeed="0.40" departDelay="0.08" arrival="75.00" arrivalLane="aurora-upper_out_0" arrivalPos="195.15" arrivalPosLat="0.00" arrivalSpeed="13.54" duration="41.00" routeLength="543.60" waitingTime="0.00" waitingCount="0" stopTime="0.00" timeLoss="1.74" rerouteNo="0" devices="tripinfo_f_6.19" vType="phMotor" speedFactor="1.00" vaporized=""/>
    <tripinfo id="f_7.11" depart="29.50" departLane="aurora-upper_in_2" departPos="11.37" departPosLat="0.00" departSpeed="3.24" departDelay="0.04" arrival="75.50" arrivalLane="aurora-upper_out_1" arrivalPos="195.15" arrivalPosLat="0.00" arrivalSpeed="14.42" duration="46.00" routeLength="532.23" waitingTime="0.50" waitingCount="1" stopTime="0.00" timeLoss="9.56" rerouteNo="0" devices="tripinfo_f_7.11" vType="phCar" speedFactor="1.06" vaporized=""/>
    <tripinfo id="f_6.16" depart="29.00" departLane="aurora-upper_in_2" departPos="0.00" departPosLat="0.00" departSpeed="0.40" departDelay="0.44" arrival="76.00" arrivalLane="aurora-upper_out_1" arrivalPos="195.15" arrivalPosLat="1.20" arrivalSpeed="13.75" duration="47.00" routeLength="543.60" waitingTime="3.50" waitingCount="1" stopTime="0.00" timeLoss="7.80" rerouteNo="0" devices="tripinfo_f_6.16" vType="phMotor" speedFactor="1.00" vaporized=""/>
    <tripinfo id="f_6.20" depart="36.00" departLane="aurora-upper_in_1" departPos="8.25" departPosLat="0.00" departSpeed="4.46" departDelay="0.30" arrival="77.00" arrivalLane="aurora-upper_out_0" arrivalPos="195.15" arrivalPosLat="0.00" arrivalSpeed="13.54" duration="41.00" routeLength="535.35" waitingTime="0.00" waitingCount="0" stopTime="0.00" timeLoss="2.35" rerouteNo="0" devices="tripinfo_f_6.20" vType="phMotor" speedFactor="1.00" vaporized=""/>
    <tripinfo id="f_7.13" depart="35.00" departLane="aurora-upper_in_1" departPos="0.00" departPosLat="0.00" departSpeed="2.77" departDelay="0.19" arrival="78.00" arrivalLane="aurora-upper_out_1" arrivalPos="195.15" arrivalPosLat="0.00" arrivalSpeed="15.45" duration="43.00" routeLength="543.60" waitingTime="0.00" waitingCount="0" stopTime="0.00" timeLoss="8.58" rerouteNo="0" devices="tripinfo_f_7.13" vType="phCar" speedFactor="1.15" vaporized=""/>
    <tripinfo id="f_2.13" depart="37.50" departLane="aurora-lower_in_0" departPos="0.00" departPosLat="0.00" departSpeed="13.77" departDelay="0.22" arrival="78.00" arrivalLane="aurora-lower_out_0" arrivalPos="233.24" arrivalPosLat="0.00" arrivalSpeed="13.63" duration="40.50" routeLength="544.49" waitingTime="0.00" waitingCount="0" stopTime="0.00" timeLoss="0.91" rerouteNo="0" devices="tripinfo_f_2.13" vType="phMotor" speedFactor="1.00" vaporized=""/>
    <tripinfo id="f_7.14" depart="37.50" departLane="aurora-upper_in_1" departPos="20.22" departPosLat="0.00" departSpeed="6.42" departDelay="0.01" arrival="79.00" arrivalLane="aurora-upper_out_1" arrivalPos="195.15" arrivalPosLat="0.00" arrivalSpeed="14.73" duration="41.50" routeLength="523.38" waitingTime="0.00" waitingCount="0" stopTime="0.00" timeLoss="6.42" rerouteNo="0" devices="tripinfo_f_7.14" vType="phCar" speedFactor="1.09" vaporized=""/>
    <tripinfo id="f_3.9" depart="39.00" departLane="aurora-lower_in_2" departPos="0.00" departPosLat="0.00" departSpeed="13.63" departDelay="0.29" arrival="79.50" arrivalLane="aurora-lower_out_1" arrivalPos="233.24" arrivalPosLat="0.00" arrivalSpeed="13.48" duration="40.50" routeLength="544.49" waitingTime="0.00" waitingCount="0" stopTime="0.00" timeLoss="1.34" rerouteNo="0" devices="tripinfo_f_3.9" vType="phCar" speedFactor="1.00" vaporized=""/>
    <tripinfo id="f_6.21" depart="37.50" departLane="aurora-upper_in_1" departPos="0.00" departPosLat="0.00" departSpeed="6.42" departDelay="0.01" arrival="81.00" arrivalLane="aurora-upper_out_0" arrivalPos="195.15" arrivalPosLat="0.00" arrivalSpeed="13.87" duration="43.50" routeLength="543.60" waitingTime="0.00" waitingCount="0" stopTime="0.00" timeLoss="4.05" rerouteNo="0" devices="tripinfo_f_6.21" vType="phMotor" speedFactor="1.00" vaporized=""/>
    <tripinfo id="f_2.14" depart="40.50" departLane="aurora-lower_in_0" departPos="0.00" departPosLat="0.00" departSpeed="13.65" departDelay="0.35" arrival="81.00" arrivalLane="aurora-lower_out_0" arrivalPos="233.24" arrivalPosLat="0.00" arrivalSpeed="13.83" duration="40.50" routeLength="544.49" waitingTime="0.00" waitingCount="0" stopTime="0.00" timeLoss="0.89" rerouteNo="0" devices="tripinfo_f_2.14" vType="phMotor" speedFactor="1.00" vaporized=""/>
    <tripinfo id="f_45.2" depart="3.50" departLane="L1_2" departPos="0.00" departPosLat="0.00" departSpeed="13.61" departDelay="0.04" arrival="85.00" arrivalLane="L3_0" arrivalPos="551.98" arrivalPosLat="0.00" arrivalSpeed="15.76" duration="81.50" routeLength="1287.25" waitingTime="0.00" waitingCount="0" stopTime="0.00" timeLoss="2.24" rerouteNo="0" devices="tripinfo_f_45.2" vType="phCar" speedFactor="1.17" vaporized=""/>
    <tripinfo id="f_45.0" depart="0.00" departLane="L1_1" departPos="0.00" departPosLat="0.00" departSpeed="15.01" departDelay="0.00" arrival="88.00" arrivalLane="L3_0" arrivalPos="551.98" arrivalPosLat="0.00" arrivalSpeed="14.72" duration="88.00" routeLength="1287.25" waitingTime="0.00" waitingCount="0" stopTime="0.00" timeLoss="1.80" rerouteNo="0" devices="tripinfo_f_45.0" vType="phCar" speedFactor="1.08" vaporized=""/>
    <tripinfo id="f_0.2" depart="20.00" departLane="R7_1" departPos="0.00" departPosLat="0.00" departSpeed="0.00" departDelay="0.22" arrival="89.50" arrivalLane="aurora-upper_out_3" arrivalPos="195.15" arrivalPosLat="0.00" arrivalSpeed="13.57" duration="69.50" routeLength="466.41" waitingTime="33.00" waitingCount="1" stopTime="0.00" timeLoss="35.75" rerouteNo="0" devices="tripinfo_f_0.2" vType="phMotor" speedFactor="1.00" vaporized=""/>
    <tripinfo id="f_0.0" depart="0.00" departLane="R7_0" departPos="0.00" departPosLat="0.00" departSpeed="13.89" departDelay="0.00" arrival="90.00" arrivalLane="aurora-upper_out_2" arrivalPos="195.15" arrivalPosLat="0.00" arrivalSpeed="13.88" duration="90.00" routeLength="471.47" waitingTime="54.00" waitingCount="1" stopTime="0.00" timeLoss="55.75" rerouteNo="0" devices="tripinfo_f_0.0" vType="phMotor" speedFactor="1.00" vaporized=""/>
    <tripinfo id="f_0.1" depart="10.00" departLane="R7_0" departPos="0.00" departPosLat="0.00" departSpeed="13.79" departDelay="0.11" arrival="90.00" arrivalLane="aurora-upper_out_2" arrivalPos="195.15" arrivalPosLat="-1.25" arrivalSpeed="13.88" duration="80.00" routeLength="471.47" waitingTime="43.50" waitingCount="1" stopTime="0.00" timeLoss="45.78" rerouteNo="0" devices="tripinfo_f_0.1" vType="phMotor" speedFactor="1.00" vaporized=""/>
    <tripinfo id="f_0.4" depart="40.00" departLane="R7_0" departPos="0.00" departPosLat="0.00" departSpeed="0.00" departDelay="0.44" arrival="90.50" arrivalLane="aurora-upper_out_2" arrivalPos="195.15" arrivalPosLat="0.00" arrivalSpeed="13.53" duration="50.50" routeLength="471.47" waitingTime="13.50" waitingCount="1" stopTime="0.00" timeLoss="16.44" rerouteNo="0" devices="tripinfo_f_0.4" vType="phMotor" speedFactor="1.00" vaporized=""/>
    <tripinfo id="f_0.5" depart="49.50" departLane="R7_1" departPos="0.00" departPosLat="0.00" departSpeed="0.00" departDelay="0.05" arrival="90.50" arrivalLane="aurora-upper_out_3" arrivalPos="195.15" arrivalPosLat="0.00" arrivalSpeed="13.88" duration="41.00" routeLength="466.41" waitingTime="4.00" waitingCount="1" stopTime="0.00" timeLoss="6.94" rerouteNo="0" devices="tripinfo_f_0.5" vType="phMotor" speedFactor="1.00" vaporized=""/>
    <tripinfo id="f_0.3" depart="30.00" departLane="R7_1" departPos="2.40" departPosLat="0.00" departSpeed="0.80" departDelay="0.33" arrival="91.00" arrivalLane="aurora-upper_out_3" arrivalPos="195.15" arrivalPosLat="0.00" arrivalSpeed="13.44" duration="61.00" routeLength="464.01" waitingTime="23.00" waitingCount="2" stopTime="0.00" timeLoss="27.29" rerouteNo="0" devices="tripinfo_f_0.3" vType="phMotor" speedFactor="1.00" vaporized=""/>
    <tripinfo id="f_1.1" depart="15.00" departLane="R7_0" departPos="0.00" departPosLat="0.00" departSpeed="0.80" departDelay="0.19" arrival="91.50" arrivalLane="aurora-upper_out_2" arrivalPos="195.15" arrivalPosLat="0.00" arrivalSpeed="13.82" duration="76.50" routeLength="471.47" waitingTime="35.50" waitingCount="1" stopTime="0.00" timeLoss="42.71" rerouteNo="0" devices="tripinfo_f_1.1" vType="phCar" speedFactor="1.00" vaporized=""/>
    <tripinfo id="f_1.3" depart="44.50" departLane="R7_0" departPos="0.00" departPosLat="0.00" departSpeed="0.80" departDelay="0.06" arrival="92.50" arrivalLane="aurora-upper_out_2" arrivalPos="195.15" arrivalPosLat="0.00" arrivalSpeed="15.57" duration="48.00" routeLength="471.47" waitingTime="9.00" waitingCount="1" stopTime="0.00" timeLoss="17.68" rerouteNo="0" devices="tripinfo_f_1.3" vType="phCar" speedFactor="1.13" vaporized=""/>
    <tripinfo id="f_1.0" depart="0.00" departLane="R7_1" departPos="0.00" departPosLat="0.00" departSpeed="13.03" departDelay="0.00" arrival="93.00" arrivalLane="aurora-upper_out_3" arrivalPos="195.15" arrivalPosLat="-0.25" arrivalSpeed="12.94" duration="93.00" routeLength="466.41" waitingTime="52.50" waitingCount="1" stopTime="0.00" timeLoss="56.93" rerouteNo="0" devices="tripinfo_f_1.0" vType="phCar" speedFactor="0.94" vaporized=""/>