<?xml version="1.0" encoding="UTF-8"?>

<!-- generated on 2025-03-20 03:10:26 by Eclipse SUMO GUI Version 1.20.0
<configuration xmlns:xsi="http://www.w3.org/2001/XMLSchema-instance" xsi:noNamespaceSchemaLocation="http://sumo.dlr.de/xsd/sumoConfiguration.xsd">

    <input>
        <net-file value="C:\Users\User\OneDrive - University of the Philippines\_UPD\4th Year Final\CoE 199\map.net.xml"/>
        <route-files value="C:\Users\User\OneDrive - University of the Philippines\_UPD\4th Year Final\CoE 199\demand.rou.xml"/>
        <additional-files value="C:\Users\User\OneDrive - University of the Philippines\_UPD\4th Year Final\CoE 199\detector.add.xml"/>
    </input>

    <output>
        <queue-output value="C:\Users\User\OneDrive - University of the Philippines\_UPD\4th Year Final\CoE 199\queue_out.xml"/>
        <summary-output value="C:\Users\User\OneDrive - University of the Philippines\_UPD\4th Year Final\CoE 199\summary_out.xml"/>
        <tripinfo-output value="C:\Users\User\OneDrive - University of the Philippines\_UPD\4th Year Final\CoE 199\tripinfo_out.xml"/>
        <statistic-output value="C:\Users\User\OneDrive - University of the Philippines\_UPD\4th Year Final\CoE 199\statistic_out.xml"/>
    </output>

    <processing>
        <lateral-resolution value="0.2"/>
        <time-to-teleport value="-1"/>
    </processing>

</configuration>
-->

<tripinfos xmlns:xsi="http://www.w3.org/2001/XMLSchema-instance" xsi:noNamespaceSchemaLocation="http://sumo.dlr.de/xsd/tripinfo_file.xsd">
</tripinfos>
